vasp.6.4.2 18Apr23 (build Jan 10 2024 12:00:00) complex
SYSTEM = Si2 test

 NIONS =      2 ions

 DAV:   1    -0.235601863704E+02    0.00000E+00   -0.41566E+04
 DAV:   2    -0.236001863704E+02    0.00000E+00   -0.32566E+03
 free  energy   TOTEN  =      -10.00000000 eV
 E-fermi :   5.1234     XC(G=0): -12.3456     alpha+bet :  6.000

 POSITION                                       TOTAL-FORCE (eV/Angst)
 -----------------------------------------------------------------------------------
      0.00000      0.00000      0.00000      0.01000      0.00000      0.00000
      1.35750      1.35750      1.35750      0.00000      0.02000      0.00000
 -----------------------------------------------------------------------------------

 RMM:   1    -0.236101863704E+02    0.00000E+00   -0.21566E+03
 RMM:   2    -0.236201863704E+02    0.00000E+00   -0.11566E+03
 free  energy   TOTEN  =      -10.50000000 eV
 E-fermi :   5.2000     XC(G=0): -12.3555     alpha+bet :  6.100

 POSITION                                       TOTAL-FORCE (eV/Angst)
 -----------------------------------------------------------------------------------
      0.00000      0.00000      0.00000      0.00300      0.00400      0.00000
      1.35750      1.35750      1.35750      0.00100      0.00200      0.00000
 -----------------------------------------------------------------------------------
