vasp.6.4.2 18Apr23 (build Jan 10 2024 12:00:00) complex
SYSTEM = Fe2 diagnostic test

 NIONS =      2 ions

 DAV:   1    -0.100000000000E+02    0.00000E+00   -0.41566E+04
 free  energy   TOTEN  =      -20.00000000 eV
 E-fermi :   4.2000     XC(G=0): -10.0000     alpha+bet :  5.000

 POSITION                                       TOTAL-FORCE (eV/Angst)
 -----------------------------------------------------------------------------------
      0.00000      0.00000      0.00000      0.05000      0.00000      0.00000
      1.00000      1.00000      1.00000      0.01000      0.01000      0.01000
 -----------------------------------------------------------------------------------

 external pressure =      -3.21 kB  Pullay stress =        0.00 kB
 in kB      10.00      20.00      30.00      1.00      2.00      3.00

 magnetization (z)
 # of ion       s       p       d      tot
 ------------------------------------------
    1        0.000   0.000   1.200   1.200
    2        0.000   0.000  -0.900  -0.900
 tot        0.000   0.000   0.300   0.300

 DAV:   1    -0.100050000000E+02    0.00000E+00   -0.12566E+03
 free  energy   TOTEN  =      -20.00005000 eV
 E-fermi :   4.2500     XC(G=0): -10.0050     alpha+bet :  5.100

 POSITION                                       TOTAL-FORCE (eV/Angst)
 -----------------------------------------------------------------------------------
      0.00000      0.00000      0.00000      0.00800      0.00600      0.00000
      1.00000      1.00000      1.00000      0.00500      0.00400      0.00000
 -----------------------------------------------------------------------------------

 external pressure =      -1.23 kB  Pullay stress =        0.00 kB
 in kB       9.00      18.00      27.00      0.90      1.80      2.70

 magnetization (z)
 # of ion       s       p       d      tot
 ------------------------------------------
    1        0.000   0.000   1.100   1.100
    2        0.000   0.000  -0.800  -0.800
 tot        0.000   0.000   0.300   0.300
